 Q-Chem 6.0 (devel), Q-Chem, Inc., Pleasanton, CA (2022)
 Q-Chem 6.0.2 for Intel X86 EM64T Linux

User input:
--------------------------------------------------------------
$molecule
0 1
 O    -3.383198     0.944088     0.000000
 H    -2.418306     1.001015     0.000000
 H    -3.651632     1.872647     0.000000
$end

$rem
jobtype              aimd
aimd_method          bomd
TIME_STEP            50
aimd_steps           10
AIMD_INIT_VELOC      thermal
AIMD_TEMP            300
scf_algorithm        DIIS_GDM
thresh_diis_switch   9
thresh               11
max_diis_cycles      150
method               WB97
basis                6-31g*
max_scf_cycles       700
symmetry             false
sym_ignore           true
max_sub_file_num     512
scf_print            0
scf_final_print      1
AIMD_GRAD
$end
--------------------------------------------------------------

    1     -76.3915210835      3.39e-09  Convergence criterion met
 Total energy in the final basis set =      -76.3915210835

                    Orbital Energies (a.u.)
 --------------------------------------------------------------

 Alpha MOs
 -- Occupied --
-19.0058  -1.1308  -0.6370  -0.4939  -0.4110

          Ground-State Mulliken Net Atomic Charges

     Atom                 Charge (a.u.)
  ----------------------------------------
      1 O                    -0.779531
      2 H                     0.389758
      3 H                     0.389773
  ----------------------------------------
  Sum of atomic charges =     0.000000

                    Cartesian Multipole Moments
 -----------------------------------------------------------------
    Charge (ESU x 10^10)
                -0.0000
    Dipole Moment (Debye)
         X       1.2447      Y       1.7612      Z       0.0000
       Tot       2.1566
    Quadrupole Moments (Debye-Ang)
        XX     -13.1022     XY      -5.3236     YY      -1.7375
        XZ      -0.0000     YZ       0.0000     ZZ      -7.2273

    1     -76.3910866778      8.88e-10  Convergence criterion met
 Total energy in the final basis set =      -76.3910866778
    1     -76.3909797634      9.28e-10  Convergence criterion met
 Total energy in the final basis set =      -76.3909797634
    1     -76.3915266752      9.21e-10  Convergence criterion met
 Total energy in the final basis set =      -76.3915266752
    1     -76.3911757629      9.33e-10  Convergence criterion met
 Total energy in the final basis set =      -76.3911757629
    1     -76.3906490796      1.34e-09  Convergence criterion met
 Total energy in the final basis set =      -76.3906490796
    1     -76.3910402702      9.44e-10  Convergence criterion met
 Total energy in the final basis set =      -76.3910402702
    1     -76.3914420060      9.45e-10  Convergence criterion met
 Total energy in the final basis set =      -76.3914420060
    1     -76.3909605571      9.28e-10  Convergence criterion met
 Total energy in the final basis set =      -76.3909605571
    1     -76.3910135493      8.94e-10  Convergence criterion met
 Total energy in the final basis set =      -76.3910135493

             Standard Nuclear Orientation (Angstroms)
    I     Atom           X                Y                Z
 ----------------------------------------------------------------
    1      O      -3.3773834804     0.9432899886     0.0112567686
    2      H      -2.4807194691     1.0422180660    -0.3276685790
    3      H      -3.6814986954     1.8441088868     0.1490164242
 ----------------------------------------------------------------

    1     -76.3915161950      8.95e-10  Convergence criterion met
 Total energy in the final basis set =      -76.3915161950
 Total job time:  14.76s(wall), 14.72s(cpu)
        *  Thank you very much for using Q-Chem.  Have a nice day.  *
